 Gaussian 16, Revision B.01,

 -----------------------------------
 # PM7 IOp(3/32=2,3/33=1) NoSymmetry
 -----------------------------------

 -----------------
 monomer optimized
 -----------------
 Symbolic Z-matrix:
 Charge =  0 Multiplicity = 1

 SCF Done:  E(RPM7) =  0.581562165680E-01 A.U. after   11 cycles
 Normal termination of Gaussian 16 at Tue May 10 09:26:55 2022.
 Gaussian 16:  EM64W-G16RevB.01 16-Dec-2017

 ------------------------------------------------------------
 # PM7 IOp(3/32=2,5/33=3) NoSymmetry Guess=Read Geom=AllCheck
 ------------------------------------------------------------

 Structure from the checkpoint file:  "dimer.chk"
 -----------------
 monomer optimized
 -----------------
 Charge =  0 Multiplicity = 1

                          Input orientation:
 ---------------------------------------------------------------------
 Center     Atomic      Atomic             Coordinates (Angstroms)
 Number     Number       Type             X           Y           Z
 ---------------------------------------------------------------------
      1          6           0        0.000000    0.000000    0.663949
      2          1           0        0.000000    0.924516    1.235340
      3          1           0        0.000000   -0.924516    1.235340
      4          6           0        0.000000    0.000000   -0.663949
      5          1           0        0.000000   -0.924516   -1.235340
      6          1           0        0.000000    0.924516   -1.235340
      7          6           0        0.000000   -0.453862    3.715294
      8          1           0        0.000000   -0.856032    4.724985
      9          1           0        0.000000   -1.177113    2.904044
     10          6           0        0.000000    0.853862    3.484707
     11          1           0        0.000000    1.256032    2.475015
     12          1           0        0.000000    1.577113    4.295956
 ---------------------------------------------------------------------

 SCF Done:  E(RPM7) =  0.581562165680E-01 A.U. after    2 cycles

 Alpha  occ. eigenvalues --   -1.02423  -0.96732  -0.76179  -0.73628  -0.60868
 Alpha  occ. eigenvalues --   -0.59439  -0.53463  -0.49875  -0.47239  -0.41288
 Alpha  occ. eigenvalues --   -0.39820  -0.39418
 Alpha virt. eigenvalues --    0.03651   0.03713   0.18101   0.19323   0.20759
 Alpha virt. eigenvalues --    0.21050   0.22173   0.22843   0.23463   0.23701
 Alpha virt. eigenvalues --    0.24678   0.25896

 Mulliken charges:
               1
     1  C   -0.301605
     2  H    0.154527
     3  H    0.145939
     4  C   -0.281229
     5  H    0.142049
     6  H    0.141720
     7  C   -0.283946
     8  H    0.143104
     9  H    0.143083
    10  C   -0.301280
    11  H    0.154481
    12  H    0.143158
 Sum of Mulliken charges =   0.00000

 Dipole moment (field-independent basis, Debye):
    X=              0.0000    Y=              0.0153    Z=             -0.0283  Tot=              0.0322
 N-N= 7.511638523102D+01 E-N=-1.004012818122D+02  KE=-3.490772201559D+01

 Test job not archived.
 1|1|UNPC-DESKTOP-ATGL590|SP|RPM7|ZDO|C4H8|ICCAS|10-May-2022|0||# PM7 I
 Op(3/32=2,5/33=3) NoSymmetry Guess=Read Geom=AllCheck||monomer optimiz
 ed||0,1|C,0,0.,0.,0.66394905|H,0,0.,0.92451607,1.23534009|H,0,0.,-0.92
 451607,1.23534009|C,0,0.,0.,-0.66394905|H,0,0.,-0.92451607,-1.23534009
 |H,0,0.,0.92451607,-1.23534009|C,0,0.,-0.45386215,3.71529381|H,0,0.,-0
 .85603195,4.72498542|H,0,0.,-1.17711302,2.90404424|C,0,0.,0.85386218,3
 .48470674|H,0,0.,1.25603199,2.47501513|H,0,0.,1.57711305,4.29595631||V

 Normal termination of Gaussian 16 at Tue May 10 09:26:56 2022.
