 Gaussian 16, Revision B.01,

 ----------------------------
 # PM7 IOp(3/32=2) NoSymmetry
 ----------------------------

 -----------------
 monomer optimized
 -----------------
 Symbolic Z-matrix:
 Charge =  0 Multiplicity = 1

 SCF Done:  E(RPM7) =  0.228850337821E-01 A.U. after    9 cycles
 Normal termination of Gaussian 16 at Tue May 10 12:13:46 2022.
 Gaussian 16:  EM64W-G16RevB.01 16-Dec-2017

 ------------------------------------------------------------
 # PM7 IOp(3/32=2,5/33=3) NoSymmetry Guess=Read Geom=AllCheck
 ------------------------------------------------------------

 Structure from the checkpoint file:  "monomer2.chk"
 -----------------
 monomer optimized
 -----------------
 Charge =  0 Multiplicity = 1

                          Input orientation:
 ---------------------------------------------------------------------
 Center     Atomic      Atomic             Coordinates (Angstroms)
 Number     Number       Type             X           Y           Z
 ---------------------------------------------------------------------
      1          6           0        0.000000   -0.453862    3.715294
      2          1           0        0.000000   -0.856032    4.724985
      3          1           0        0.000000   -1.177113    2.904044
      4          6           0        0.000000    0.853862    3.484707
      5          1           0        0.000000    1.256032    2.475015
      6          1           0        0.000000    1.577113    4.295956
 ---------------------------------------------------------------------

 SCF Done:  E(RPM7) =  0.228850337821E-01 A.U. after    2 cycles

 Alpha  occ. eigenvalues --   -0.98732  -0.73629  -0.59902  -0.52543  -0.44519
 Alpha  occ. eigenvalues --   -0.39525
 Alpha virt. eigenvalues --    0.03775   0.19981   0.20660   0.23381   0.23703
 Alpha virt. eigenvalues --    0.23756

 Mulliken charges:
               1
     1  C   -0.283754
     2  H    0.141877
     3  H    0.141877
     4  C   -0.283754
     5  H    0.141877
     6  H    0.141877
 Sum of Mulliken charges =   0.00000

 Dipole moment (field-independent basis, Debye):
    X=              0.0000    Y=              0.0000    Z=              0.0000  Tot=              0.0000
 N-N= 2.718391051451D+01 E-N=-2.952499437537D+01  KE=-1.742006992030D+01

 Test job not archived.
 1|1|UNPC-DESKTOP-ATGL590|SP|RPM7|ZDO|C2H4|ICCAS|10-May-2022|0||# PM7 I
 Op(3/32=2,5/33=3) NoSymmetry Guess=Read Geom=AllCheck||monomer optimiz
 ed||0,1|C,0,0.,-0.45386215,3.71529381|H,0,0.,-0.85603195,4.72498542|H,
 0,0.,-1.17711302,2.90404424|C,0,0.,0.85386218,3.48470674|H,0,0.,1.2560
 3199,2.47501513|H,0,0.,1.57711305,4.29595631||Version=EM64W-G16RevB.01
 |HF=0.022885|RMSD=5.515e-010|Dipole=0.,0.,0.|PG=C02H [SGH(C2H4)]||@

 Normal termination of Gaussian 16 at Tue May 10 12:13:47 2022.
