 Gaussian 16, Revision B.01,

 ----------------------------
 # PM7 IOp(3/32=2) NoSymmetry
 ----------------------------

 -----------------
 monomer optimized
 -----------------
 Symbolic Z-matrix:
 Charge =  0 Multiplicity = 1

 SCF Done:  E(RPM7) =  0.228850338692E-01 A.U. after    9 cycles
 Normal termination of Gaussian 16 at Tue May 10 11:50:03 2022.
 Gaussian 16:  EM64W-G16RevB.01 16-Dec-2017

 ------------------------------------------------------------
 # PM7 IOp(3/32=2,5/33=3) NoSymmetry Guess=Read Geom=AllCheck
 ------------------------------------------------------------

 Structure from the checkpoint file:  "monomer1.chk"
 -----------------
 monomer optimized
 -----------------
 Charge =  0 Multiplicity = 1

                          Input orientation:
 ---------------------------------------------------------------------
 Center     Atomic      Atomic             Coordinates (Angstroms)
 Number     Number       Type             X           Y           Z
 ---------------------------------------------------------------------
      1          6           0        0.000000    0.000000    0.663949
      2          1           0        0.000000    0.924516    1.235340
      3          1           0        0.000000   -0.924516    1.235340
      4          6           0        0.000000    0.000000   -0.663949
      5          1           0        0.000000   -0.924516   -1.235340
      6          1           0        0.000000    0.924516   -1.235340
 ---------------------------------------------------------------------

 SCF Done:  E(RPM7) =  0.228850338693E-01 A.U. after    2 cycles

 Alpha  occ. eigenvalues --   -0.98732  -0.73629  -0.59902  -0.52543  -0.44519
 Alpha  occ. eigenvalues --   -0.39525
 Alpha virt. eigenvalues --    0.03775   0.19981   0.20660   0.23381   0.23703
 Alpha virt. eigenvalues --    0.23756

 Mulliken charges:
               1
     1  C   -0.283754
     2  H    0.141877
     3  H    0.141877
     4  C   -0.283754
     5  H    0.141877
     6  H    0.141877
 Sum of Mulliken charges =   0.00000

 Dipole moment (field-independent basis, Debye):
    X=              0.0000    Y=              0.0000    Z=              0.0000  Tot=              0.0000
 N-N= 2.718391047610D+01 E-N=-2.952499431488D+01  KE=-1.742006991387D+01

 Test job not archived.
 1|1|UNPC-DESKTOP-ATGL590|SP|RPM7|ZDO|C2H4|ICCAS|10-May-2022|0||# PM7 I
 Op(3/32=2,5/33=3) NoSymmetry Guess=Read Geom=AllCheck||monomer optimiz
 ed||0,1|C,0,0.,0.,0.66394905|H,0,0.,0.92451607,1.23534009|H,0,0.,-0.92
 451607,1.23534009|C,0,0.,0.,-0.66394905|H,0,0.,-0.92451607,-1.23534009
 |H,0,0.,0.92451607,-1.23534009||Version=EM64W-G16RevB.01|HF=0.022885|R
 MSD=5.477e-010|Dipole=0.,0.,0.|PG=D02H [C2"(C1.C1),SG(H4)]||@

 Normal termination of Gaussian 16 at Tue May 10 11:50:05 2022.
